<?xml version="1.0"?>
<VTKFile type="PolyData" version="0.1" byte_order="LittleEndian" compressor="vtkZLibDataCompressor">
  <PolyData>
    <FieldData>
      <DataArray type="Float64" Name="AortaIntensityMean" NumberOfTuples="1" format="ascii" RangeMin="399.31972789" RangeMax="399.31972789">
        399.31972789
      </DataArray>
      <DataArray type="Float64" Name="AortaIntensitySigma" NumberOfTuples="1" format="ascii" RangeMin="20.901619312" RangeMax="20.901619312">
        20.901619312
      </DataArray>
    </FieldData>
    <Piece NumberOfPoints="756" NumberOfVerts="0" NumberOfLines="13" NumberOfStrips="0" NumberOfPolys="0">
      <PointData>
        <DataArray type="Int32" Name="PointType" format="ascii" RangeMin="-2" RangeMax="7">
          0 -1 -1 -1 -1 -1
          -1 -1 -1 -1 -1 -1
          -1 -1 -1 -1 -1 -1
          -1 -1 -1 -1 -1 -1
          -1 -1 -1 -1 -1 -2
          -1 -1 -1 -1 -1 -1
          -1 -1 -1 -1 -1 -1
          -1 -1 -1 -1 -1 -1
          -1 -1 -1 -1 -1 -1
          -1 -1 -1 -1 -1 -1
          -1 -1 -1 -1 -1 -1
          -1 -1 -1 -1 -1 -1
          -1 -1 -1 -1 -1 -1
          -1 -1 -1 -1 -1 -1
          -1 -1 -1 -1 -1 -1
          -1 -1 -1 -1 -1 -1
          -1 -1 -1 -1 -1 -1
          -1 -1 -1 -1 -1 -1
          -1 -1 -1 -1 -1 -1
          -1 -1 -1 -1 -1 -1
          -1 -1 -1 -1 -1 -1
          -1 -1 -1 -1 -1 -1
          -1 -1 -1 -1 -1 -1
          -1 -1 -1 -1 -1 -1
          -1 -1 -1 -1 -1 -1
          -1 -1 -1 -1 -1 -1
          -1 -1 -1 -1 -1 -1
          -1 -1 -1 -1 -1 -1
          -1 -1 -1 -1 -1 -1
          -1 -1 -1 -1 -1 -1
          -1 -1 -1 -1 -1 -1
          -1 -1 -1 -1 -1 -1
          -1 -1 -1 -1 -1 -1
          -1 -1 -1 -1 -1 -1
          -1 -1 -1 -1 -1 -1
          -1 -1 -2 -1 -1 -1
          -1 -1 -1 -1 -1 -1
          -1 -1 -1 -1 -1 -1
          -1 -1 -1 -1 -1 -1
          -1 -1 -1 -1 -1 -1
          -1 -1 -1 -1 -1 -1
          -1 -1 -1 -1 -1 -1
          -1 -1 -1 -1 -1 -1
          -1 -1 -1 -1 -1 -1
          -1 -1 -1 -1 -1 -1
          -1 -1 -1 -1 -1 -1
          -1 -1 -1 1 -1 -1
          -1 -1 -1 -1 -1 -1
          -1 -1 -1 -1 -1 -1
          -1 -1 -2 -1 -1 -1
          -1 -1 -1 -1 -1 -1
          -1 -1 -1 -1 -1 -1
          -1 -1 -1 -1 -2 -1
          -1 -1 -1 -1 -1 -1
          -1 -1 -1 -1 -1 -1
          -1 -1 -1 -1 -1 -1
          -1 -1 -1 -1 -1 -1
          -1 -1 -2 -1 -1 -1
          -1 -1 -1 -1 -1 -1
          -1 -1 -1 -1 -1 -1
          -1 -1 -1 -1 -1 -1
          -1 -1 -1 -1 -1 -1
          -1 -1 -1 -1 -1 -1
          -1 -1 -1 -1 -1 -1
          -1 -1 -1 -1 -1 -1
          -1 -1 -1 -1 -1 -1
          -1 -1 -1 -1 -1 -1
          -1 -1 -1 -1 -1 -1
          -1 -1 -1 -1 -1 -1
          -1 -1 -1 -1 -1 -1
          -1 -1 -1 -1 -1 -1
          -1 -1 -1 -1 -1 -1
          -1 -1 -1 -1 -1 -1
          -1 -1 -1 -1 -1 -1
          -1 -1 -1 -1 -1 -1
          -1 -1 -1 -1 -1 -1
          -1 -1 -1 -1 -1 -1
          -1 -1 -1 -1 -1 -1
          -1 -1 -1 -1 -1 -1
          -1 -1 -1 -1 -1 -1
          -1 -1 -1 -1 -1 -1
          -1 -1 -1 -1 -1 -1
          -1 -1 -1 -1 -1 -1
          -1 -1 -1 -1 -1 -1
          -1 -1 -1 -1 -1 -1
          -1 -1 -1 -1 -1 -1
          -1 -1 -1 -1 -1 -1
          -1 2 -1 -1 -1 -1
          -1 -1 -1 -1 -1 -1
          -1 -1 -1 -1 -1 -1
          -1 -1 -1 -1 3 -1
          -1 -1 -1 -1 -1 -1
          -1 -1 -1 -1 -1 -1
          -1 -1 -1 -1 -1 -1
          -1 -1 -1 -1 -1 -1
          -1 -1 -1 -1 -1 -1
          -1 -1 -1 -1 -1 -1
          -1 -1 -1 -1 -1 -1
          -1 -1 -1 -1 -1 -1
          -1 -1 -1 -1 -1 -1
          -1 -1 -1 -1 4 -1
          -1 -1 -1 -1 -1 -1
          -1 -1 -1 -1 -1 -1
          -1 -1 -1 -1 -1 -1
          -1 -1 -1 -1 -1 -1
          -1 -1 -1 -1 -1 -1
          -1 -1 -1 -1 -1 -1
          -1 -1 -1 -1 -1 -1
          -1 -1 5 -1 -1 -1
          -1 -1 -1 -1 -1 -1
          -1 -1 -1 -1 -1 -1
          -2 -1 -1 -1 -1 -1
          -1 -1 -1 -1 -1 -1
          -1 -1 -1 -1 -1 -1
          -1 -1 -1 -1 -1 -1
          -1 -1 -1 -1 -1 -1
          -1 -1 -1 -1 -1 -1
          -1 -1 -1 -1 -1 -1
          -1 -1 -1 -1 -1 -1
          -1 -1 -1 6 -1 -1
          -1 -1 -1 -1 -1 -1
          -1 -1 -1 -1 -1 -1
          -1 -1 -1 -1 -1 -1
          -1 -1 -1 -1 -1 -1
          -1 -1 -1 -1 -1 -1
          -1 -1 -1 -1 -1 7
        </DataArray>
        <DataArray type="Int32" Name="PixelCount" format="ascii" RangeMin="28" RangeMax="337">
          337 337 337 337 337 315
          309 298 295 294 288 309
          305 314 314 328 324 300
          314 281 270 262 254 241
          244 233 210 196 193 188
          179 177 165 161 149 147
          149 131 138 158 155 177
          188 200 195 211 213 203
          224 217 202 215 210 212
          217 213 214 214 215 189
          183 166 148 144 155 158
          158 179 196 220 234 251
          263 269 263 280 282 281
          285 297 290 289 293 305
          305 305 294 304 305 288
          280 297 285 293 298 286
          269 248 248 246 240 229
          245 256 265 263 257 256
          255 249 248 239 240 235
          230 216 212 199 191 194
          199 190 196 185 195 193
          190 184 177 183 189 190
          198 198 202 202 194 195
          205 197 193 200 188 181
          171 161 166 160 164 153
          155 162 145 150 155 148
          142 140 144 135 136 151
          135 137 140 139 141 136
          130 128 122 132 122 124
          123 123 140 140 145 132
          140 135 121 119 117 111
          106 122 124 116 125 117
          112 98 95 94 90 87
          91 89 93 91 90 100
          97 105 101 109 101 91
          94 94 98 97 95 93
          93 88 85 84 82 85
          92 90 91 84 96 76
          86 78 87 77 93 82
          95 83 80 80 76 71
          64 56 62 66 60 68
          66 60 65 63 53 42
          48 48 47 52 42 41
          39 46 51 46 47 50
          52 60 61 69 67 65
          57 61 58 64 49 59
          57 60 63 67 175 152
          138 146 148 148 153 154
          177 186 181 192 192 161
          159 156 162 153 149 149
          125 133 117 116 117 121
          139 144 140 132 136 131
          136 122 125 129 126 127
          125 120 129 138 140 149
          145 145 164 160 153 158
          146 160 148 142 128 125
          107 113 106 113 111 98
          102 101 104 94 91 88
          91 86 85 80 72 77
          78 86 76 90 75 79
          75 81 85 80 83 82
          84 97 92 89 88 90
          90 90 82 84 81 86
          76 71 88 75 75 61
          70 64 65 65 58 69
          66 62 65 68 61 59
          55 53 65 73 73 59
          59 57 61 59 51 61
          66 64 74 67 61 64
          65 62 69 70 63 61
          72 78 76 68 69 81
          83 74 68 83 81 83
          77 80 82 70 75 70
          74 74 82 72 82 74
          75 84 72 77 82 78
          85 84 70 76 81 81
          81 90 89 88 82 87
          82 83 77 80 75 62
          59 63 74 75 73 71
          63 69 78 75 76 71
          62 67 65 47 61 66
          57 53 53 57 54 64
          61 57 56 63 62 69
          61 65 67 71 69 63
          67 67 70 61 62 68
          75 79 62 65 61 64
          65 67 64 67 69 59
          57 43 81 73 64 55
          51 51 51 50 46 55
          60 68 57 58 60 62
          50 56 45 61 60 87
          85 77 72 69 60 59
          54 53 58 66 65 65
          76 66 69 68 68 77
          80 77 84 88 84 89
          91 85 86 89 86 92
          88 99 87 96 101 103
          89 72 71 75 75 81
          69 62 60 67 69 70
          72 74 72 72 68 67
          62 60 65 64 56 107
          84 72 53 61 63 62
          61 58 69 68 82 76
          78 82 64 64 63 64
          55 57 55 48 45 57
          55 43 49 59 54 51
          50 58 64 63 54 53
          55 54 57 67 60 62
          58 53 52 149 141 134
          126 122 106 104 97 97
          106 113 103 96 95 89
          89 83 77 67 55 53
          53 64 57 59 64 64
          64 63 66 61 67 68
          68 68 74 71 72 76
          77 83 76 71 80 71
          69 72 72 71 70 61
          64 63 64 67 64 62
          67 61 57 60 64 63
          64 64 66 53 87 83
          74 69 72 66 72 63
          62 74 65 59 67 58
          63 52 39 28 28 34
          41 58 57 72 64 65
          65 63 65 60 65 60
          68 60 64 60 62 55
        </DataArray>
        <DataArray type="Int32" Name="CLIndex_CPR_plane_12" NumberOfComponents="3" format="ascii" RangeMin="1.7320508076" RangeMax="639.20732161">
          0 89 25 2 91 25
          5 94 25 7 95 25
          9 96 25 11 97 25
          13 97 25 16 97 25
          19 97 25 21 97 25
          23 97 25 25 97 25
          27 97 25 29 97 25
          30 97 25 32 97 25
          34 96 25 36 96 25
          38 96 25 40 96 25
          42 96 25 45 95 25
          48 95 25 50 95 25
          52 94 25 54 94 25
          56 93 25 58 93 25
          60 92 25 63 92 25
          -1 -1 -1 -1 -1 -1
          -1 -1 -1 -1 -1 -1
          -1 -1 -1 -1 -1 -1
          -1 -1 -1 -1 -1 -1
          -1 -1 -1 -1 -1 -1
          -1 -1 -1 -1 -1 -1
          -1 -1 -1 -1 -1 -1
          -1 -1 -1 -1 -1 -1
          -1 -1 -1 -1 -1 -1
          -1 -1 -1 -1 -1 -1
          -1 -1 -1 -1 -1 -1
          -1 -1 -1 -1 -1 -1
          -1 -1 -1 -1 -1 -1
          -1 -1 -1 -1 -1 -1
          -1 -1 -1 -1 -1 -1
          -1 -1 -1 -1 -1 -1
          -1 -1 -1 -1 -1 -1
          -1 -1 -1 -1 -1 -1
          -1 -1 -1 -1 -1 -1
          -1 -1 -1 -1 -1 -1
          -1 -1 -1 -1 -1 -1
          -1 -1 -1 -1 -1 -1
          -1 -1 -1 -1 -1 -1
          -1 -1 -1 -1 -1 -1
          -1 -1 -1 -1 -1 -1
          -1 -1 -1 -1 -1 -1
          -1 -1 -1 -1 -1 -1
          -1 -1 -1 -1 -1 -1
          -1 -1 -1 -1 -1 -1
          -1 -1 -1 -1 -1 -1
          -1 -1 -1 -1 -1 -1
          -1 -1 -1 -1 -1 -1
          -1 -1 -1 -1 -1 -1
          -1 -1 -1 -1 -1 -1
          -1 -1 -1 -1 -1 -1
          -1 -1 -1 -1 -1 -1
          -1 -1 -1 -1 -1 -1
          -1 -1 -1 -1 -1 -1
          -1 -1 -1 -1 -1 -1
          -1 -1 -1 -1 -1 -1
          -1 -1 -1 -1 -1 -1
          -1 -1 -1 -1 -1 -1
          -1 -1 -1 -1 -1 -1
          -1 -1 -1 -1 -1 -1
          -1 -1 -1 -1 -1 -1
          -1 -1 -1 -1 -1 -1
          -1 -1 -1 -1 -1 -1
          -1 -1 -1 -1 -1 -1
          -1 -1 -1 -1 -1 -1
          -1 -1 -1 -1 -1 -1
          -1 -1 -1 -1 -1 -1
          -1 -1 -1 -1 -1 -1
          -1 -1 -1 -1 -1 -1
          -1 -1 -1 -1 -1 -1
          -1 -1 -1 -1 -1 -1
          -1 -1 -1 -1 -1 -1
          -1 -1 -1 -1 -1 -1
          -1 -1 -1 -1 -1 -1
          -1 -1 -1 -1 -1 -1
          -1 -1 -1 -1 -1 -1
          -1 -1 -1 -1 -1 -1
          -1 -1 -1 -1 -1 -1
          -1 -1 -1 -1 -1 -1
          -1 -1 -1 -1 -1 -1
          -1 -1 -1 -1 -1 -1
          -1 -1 -1 -1 -1 -1
          -1 -1 -1 -1 -1 -1
          -1 -1 -1 -1 -1 -1
          -1 -1 -1 -1 -1 -1
          -1 -1 -1 -1 -1 -1
          -1 -1 -1 -1 -1 -1
          -1 -1 -1 -1 -1 -1
          -1 -1 -1 -1 -1 -1
          -1 -1 -1 -1 -1 -1
          -1 -1 -1 -1 -1 -1
          -1 -1 -1 -1 -1 -1
          -1 -1 -1 -1 -1 -1
          -1 -1 -1 -1 -1 -1
          -1 -1 -1 -1 -1 -1
          -1 -1 -1 -1 -1 -1
          -1 -1 -1 -1 -1 -1
          -1 -1 -1 -1 -1 -1
          -1 -1 -1 -1 -1 -1
          -1 -1 -1 -1 -1 -1
          -1 -1 -1 -1 -1 -1
          -1 -1 -1 -1 -1 -1
          -1 -1 -1 -1 -1 -1
          -1 -1 -1 -1 -1 -1
          -1 -1 -1 -1 -1 -1
          -1 -1 -1 -1 -1 -1
          -1 -1 -1 -1 -1 -1
          -1 -1 -1 -1 -1 -1
          -1 -1 -1 -1 -1 -1
          -1 -1 -1 -1 -1 -1
          -1 -1 -1 -1 -1 -1
          -1 -1 -1 -1 -1 -1
          -1 -1 -1 -1 -1 -1
          -1 -1 -1 -1 -1 -1
          -1 -1 -1 -1 -1 -1
          -1 -1 -1 -1 -1 -1
          -1 -1 -1 -1 -1 -1
          -1 -1 -1 -1 -1 -1
          -1 -1 -1 -1 -1 -1
          -1 -1 -1 -1 -1 -1
          -1 -1 -1 -1 -1 -1
          -1 -1 -1 -1 -1 -1
          -1 -1 -1 -1 -1 -1
          -1 -1 -1 -1 -1 -1
          -1 -1 -1 -1 -1 -1
          -1 -1 -1 -1 -1 -1
          -1 -1 -1 -1 -1 -1
          -1 -1 -1 -1 -1 -1
          -1 -1 -1 -1 -1 -1
          -1 -1 -1 -1 -1 -1
          -1 -1 -1 -1 -1 -1
          -1 -1 -1 -1 -1 -1
          -1 -1 -1 -1 -1 -1
          -1 -1 -1 -1 -1 -1
          -1 -1 -1 -1 -1 -1
          -1 -1 -1 -1 -1 -1
          -1 -1 -1 -1 -1 -1
          -1 -1 -1 -1 -1 -1
          -1 -1 -1 -1 -1 -1
          -1 -1 -1 -1 -1 -1
          -1 -1 -1 -1 -1 -1
          65 91 25 68 90 25
          72 90 25 75 89 25
          77 88 25 80 87 25
          83 85 25 85 83 25
          88 81 25 90 80 25
          92 79 25 94 78 25
          96 77 25 99 76 25
          102 75 25 105 74 25
          107 73 25 109 72 25
          110 72 25 113 71 25
          115 70 25 118 69 25
          120 68 25 122 68 25
          125 67 25 127 67 25
          129 67 25 132 66 25
          135 65 25 137 65 25
          140 64 25 142 63 25
          144 63 25 146 63 25
          148 62 25 150 62 25
          152 62 25 155 63 25
          158 63 25 161 63 25
          164 63 25 166 63 25
          168 63 25 171 63 25
          173 63 25 175 63 25
          178 64 25 180 64 25
          183 64 25 185 64 25
          188 65 25 190 65 25
          192 65 25 194 65 25
          197 65 25 199 65 25
          202 65 25 205 66 25
          207 66 25 210 66 25
          212 66 25 215 66 25
          218 66 25 221 66 25
          224 66 25 226 66 25
          229 66 25 230 65 25
          233 65 25 235 65 25
          238 65 25 240 65 25
          243 65 25 245 65 25
          247 65 25 250 65 25
          252 65 25 254 65 25
          257 65 25 259 65 25
          262 65 25 264 65 25
          266 65 25 269 65 25
          271 65 25 273 65 25
          276 65 25 278 65 25
          280 65 25 282 65 25
          285 65 25 287 65 25
          289 64 25 292 64 25
          295 64 25 296 64 25
          299 64 25 301 64 25
          303 64 25 305 64 25
          308 64 25 310 64 25
          313 64 25 316 65 25
          318 65 25 321 65 25
          323 65 25 326 66 25
          328 66 25 330 67 25
          332 68 25 334 68 25
          337 69 25 339 69 25
          342 69 25 344 70 25
          347 71 25 349 71 25
          351 72 25 353 73 25
          355 73 25 357 74 25
          360 75 25 362 76 25
          364 76 25 367 77 25
          370 78 25 372 79 25
          375 80 25 377 80 25
          379 81 25 381 82 25
          383 82 25 385 84 25
          387 85 25 389 86 25
          391 88 25 393 89 25
          395 91 25 397 93 25
          399 95 25 401 96 25
          404 99 25 406 101 25
          409 103 25 411 104 25
          414 106 25 416 108 25
          418 109 25 420 111 25
          422 112 25 424 114 25
          427 116 25 429 117 25
          431 118 25 433 119 25
          435 121 25 437 122 25
          439 124 25 441 126 25
          443 128 25 444 129 25
          447 131 25 449 133 25
          451 134 25 453 136 25
          455 138 25 456 139 25
          458 141 25 460 143 25
          462 145 25 464 147 25
          466 149 25 468 150 25
          470 152 25 472 153 25
          473 153 25 475 155 25
          477 156 25 479 156 25
          481 157 25 482 158 25
          484 159 25 486 160 25
          487 161 25 489 162 25
          491 163 25 493 164 25
          495 165 25 497 166 25
          499 168 25 501 170 25
          502 171 25 504 172 25
          506 174 25 508 175 25
          509 176 25 511 178 25
          512 179 25 514 180 25
          516 182 25 518 183 25
          519 184 25 522 186 25
          524 188 25 526 189 25
          528 190 25 529 191 25
          532 192 25 534 193 25
          535 194 25 537 195 25
          539 196 25 541 196 25
          543 197 25 545 198 25
          547 199 25 549 200 25
          551 201 25 552 202 25
          554 203 25 556 205 25
          558 206 25 561 207 25
          562 208 25 564 209 25
          566 210 25 568 211 25
          570 211 25 572 212 25
          573 212 25 575 213 25
          577 213 25 579 214 25
          581 214 25 583 215 25
          585 215 25 587 216 25
          589 216 25 591 217 25
          593 217 25 595 217 25
          598 218 25 600 219 25
          -1 -1 -1 -1 -1 -1
          -1 -1 -1 -1 -1 -1
          -1 -1 -1 -1 -1 -1
          -1 -1 -1 -1 -1 -1
          -1 -1 -1 -1 -1 -1
          -1 -1 -1 -1 -1 -1
          -1 -1 -1 -1 -1 -1
          -1 -1 -1 -1 -1 -1
          -1 -1 -1 -1 -1 -1
          -1 -1 -1 -1 -1 -1
          -1 -1 -1 -1 -1 -1
          -1 -1 -1 -1 -1 -1
          -1 -1 -1 -1 -1 -1
          -1 -1 -1 -1 -1 -1
          -1 -1 -1 -1 -1 -1
          -1 -1 -1 -1 -1 -1
          -1 -1 -1 -1 -1 -1
          -1 -1 -1 -1 -1 -1
          -1 -1 -1 -1 -1 -1
          -1 -1 -1 -1 -1 -1
          -1 -1 -1 -1 -1 -1
          -1 -1 -1 -1 -1 -1
          -1 -1 -1 -1 -1 -1
          -1 -1 -1 -1 -1 -1
          -1 -1 -1 -1 -1 -1
          -1 -1 -1 -1 -1 -1
          -1 -1 -1 -1 -1 -1
          -1 -1 -1 -1 -1 -1
          -1 -1 -1 -1 -1 -1
          -1 -1 -1 -1 -1 -1
          -1 -1 -1 -1 -1 -1
          -1 -1 -1 -1 -1 -1
          -1 -1 -1 -1 -1 -1
          -1 -1 -1 -1 -1 -1
          -1 -1 -1 -1 -1 -1
          -1 -1 -1 -1 -1 -1
          -1 -1 -1 -1 -1 -1
          -1 -1 -1 -1 -1 -1
          -1 -1 -1 -1 -1 -1
          -1 -1 -1 -1 -1 -1
          -1 -1 -1 -1 -1 -1
          -1 -1 -1 -1 -1 -1
          -1 -1 -1 -1 -1 -1
          -1 -1 -1 -1 -1 -1
          -1 -1 -1 -1 -1 -1
          -1 -1 -1 -1 -1 -1
          -1 -1 -1 -1 -1 -1
          -1 -1 -1 -1 -1 -1
          -1 -1 -1 -1 -1 -1
          -1 -1 -1 -1 -1 -1
          -1 -1 -1 -1 -1 -1
          -1 -1 -1 -1 -1 -1
          -1 -1 -1 -1 -1 -1
          -1 -1 -1 -1 -1 -1
          -1 -1 -1 -1 -1 -1
          -1 -1 -1 -1 -1 -1
          -1 -1 -1 -1 -1 -1
          -1 -1 -1 -1 -1 -1
          -1 -1 -1 -1 -1 -1
          -1 -1 -1 -1 -1 -1
          -1 -1 -1 -1 -1 -1
          -1 -1 -1 -1 -1 -1
          -1 -1 -1 -1 -1 -1
          -1 -1 -1 -1 -1 -1
          -1 -1 -1 -1 -1 -1
          -1 -1 -1 -1 -1 -1
          -1 -1 -1 -1 -1 -1
          -1 -1 -1 -1 -1 -1
          -1 -1 -1 -1 -1 -1
          -1 -1 -1 -1 -1 -1
          -1 -1 -1 -1 -1 -1
          -1 -1 -1 -1 -1 -1
          -1 -1 -1 -1 -1 -1
          -1 -1 -1 -1 -1 -1
          -1 -1 -1 -1 -1 -1
          -1 -1 -1 -1 -1 -1
          -1 -1 -1 -1 -1 -1
          -1 -1 -1 -1 -1 -1
          -1 -1 -1 -1 -1 -1
          -1 -1 -1 -1 -1 -1
          -1 -1 -1 -1 -1 -1
          -1 -1 -1 -1 -1 -1
          -1 -1 -1 -1 -1 -1
          -1 -1 -1 -1 -1 -1
          -1 -1 -1 -1 -1 -1
          -1 -1 -1 -1 -1 -1
          -1 -1 -1 -1 -1 -1
          -1 -1 -1 -1 -1 -1
          -1 -1 -1 -1 -1 -1
          -1 -1 -1 -1 -1 -1
          -1 -1 -1 -1 -1 -1
          -1 -1 -1 -1 -1 -1
          -1 -1 -1 -1 -1 -1
          -1 -1 -1 -1 -1 -1
          -1 -1 -1 -1 -1 -1
          -1 -1 -1 -1 -1 -1
          -1 -1 -1 -1 -1 -1
          -1 -1 -1 -1 -1 -1
          -1 -1 -1 -1 -1 -1
          -1 -1 -1 -1 -1 -1
          -1 -1 -1 -1 -1 -1
          -1 -1 -1 -1 -1 -1
          -1 -1 -1 -1 -1 -1
          -1 -1 -1 -1 -1 -1
          -1 -1 -1 -1 -1 -1
          -1 -1 -1 -1 -1 -1
          -1 -1 -1 -1 -1 -1
          -1 -1 -1 -1 -1 -1
          -1 -1 -1 -1 -1 -1
          -1 -1 -1 -1 -1 -1
          -1 -1 -1 -1 -1 -1
          -1 -1 -1 -1 -1 -1
          -1 -1 -1 -1 -1 -1
          -1 -1 -1 -1 -1 -1
          -1 -1 -1 -1 -1 -1
          -1 -1 -1 -1 -1 -1
        </DataArray>
        <DataArray type="Int32" Name="CLIndex_CPR_plane_11" NumberOfComponents="3" format="ascii" RangeMin="1.7320508076" RangeMax="673.60967927">
          0 103 25 2 105 25
          5 108 25 7 109 25
          9 110 25 11 111 25
          13 111 25 16 111 25
          19 111 25 21 111 25
          23 111 25 25 111 25
          27 111 25 29 111 25
          30 111 25 32 111 25
          34 110 25 36 110 25
          38 110 25 40 110 25
          42 110 25 45 109 25
          48 109 25 50 109 25
          52 108 25 54 108 25
          56 107 25 58 107 25
          60 106 25 63 105 25
          66 105 25 68 104 25
          71 103 25 74 103 25
          77 102 25 80 101 25
          83 100 25 86 100 25
          89 99 25 92 99 25
          95 99 25 98 100 25
          101 100 25 103 100 25
          106 101 25 108 102 25
          111 102 25 113 103 25
          115 103 25 118 104 25
          120 104 25 122 105 25
          124 105 25 126 106 25
          129 106 25 131 107 25
          133 108 25 135 109 25
          137 110 25 139 111 25
          141 112 25 144 114 25
          146 115 25 148 116 25
          151 117 25 154 118 25
          156 119 25 159 120 25
          161 121 25 163 122 25
          166 123 25 168 124 25
          170 125 25 173 127 25
          175 128 25 178 129 25
          181 130 25 184 131 25
          186 132 25 188 132 25
          191 133 25 194 134 25
          197 135 25 199 136 25
          201 137 25 204 138 25
          207 139 25 209 140 25
          212 141 25 214 142 25
          216 143 25 219 144 25
          221 145 25 223 146 25
          225 147 25 227 148 25
          229 149 25 231 149 25
          234 150 25 236 151 25
          238 151 25 241 152 25
          243 152 25 246 152 25
          248 152 25 250 152 25
          251 153 25 253 153 25
          256 154 25 258 154 25
          260 154 25 262 155 25
          264 155 25 266 155 25
          268 156 25 270 156 25
          272 156 25 274 157 25
          276 157 25 278 157 25
          280 158 25 282 158 25
          284 159 25 286 159 25
          289 160 25 291 160 25
          293 160 25 295 161 25
          296 161 25 298 161 25
          300 162 25 302 162 25
          304 163 25 306 163 25
          308 163 25 310 164 25
          312 164 25 314 164 25
          316 165 25 318 165 25
          320 165 25 322 166 25
          324 166 25 326 167 25
          328 167 25 330 167 25
          333 168 25 335 168 25
          336 169 25 338 169 25
          340 170 25 342 171 25
          344 171 25 347 172 25
          348 173 25 350 173 25
          352 174 25 354 174 25
          356 175 25 359 175 25
          361 176 25 363 176 25
          365 176 25 368 176 25
          369 177 25 371 177 25
          373 177 25 376 177 25
          379 177 25 381 177 25
          384 177 25 387 178 25
          389 178 25 391 178 25
          394 178 25 397 178 25
          400 178 25 402 178 25
          405 178 25 408 178 25
          412 178 25 415 178 25
          418 178 25 422 179 25
          425 179 25 428 179 25
          431 179 25 434 179 25
          437 178 25 439 178 25
          442 178 25 444 178 25
          447 178 25 450 178 25
          453 178 25 456 178 25
          459 178 25 462 178 25
          464 178 25 467 179 25
          470 179 25 473 179 25
          475 179 25 478 180 25
          481 180 25 483 180 25
          486 180 25 489 179 25
          491 179 25 493 179 25
          496 179 25 498 179 25
          500 179 25 503 179 25
          504 179 25 506 179 25
          509 179 25 511 179 25
          514 179 25 517 180 25
          519 180 25 521 180 25
          524 180 25 526 181 25
          528 181 25 531 181 25
          533 181 25 535 181 25
          538 181 25 540 181 25
          542 181 25 544 181 25
          547 181 25 549 181 25
          551 181 25 553 182 25
          555 182 25 557 182 25
          559 182 25 562 182 25
          564 181 25 567 181 25
          570 181 25 572 181 25
          575 181 25 577 181 25
          579 181 25 580 181 25
          582 181 25 584 181 25
          586 181 25 588 181 25
          591 181 25 594 180 25
          597 179 25 599 179 25
          601 178 25 603 177 25
          605 177 25 607 176 25
          610 175 25 612 175 25
          613 174 25 615 174 25
          618 173 25 620 173 25
          622 173 25 624 173 25
          626 173 25 628 173 25
          630 173 25 632 173 25
          634 173 25 636 173 25
          639 174 25 641 174 25
          643 174 25 645 174 25
          648 175 25 650 175 25
          -1 -1 -1 -1 -1 -1
          -1 -1 -1 -1 -1 -1
          -1 -1 -1 -1 -1 -1
          -1 -1 -1 -1 -1 -1
          -1 -1 -1 -1 -1 -1
          -1 -1 -1 -1 -1 -1
          -1 -1 -1 -1 -1 -1
          -1 -1 -1 -1 -1 -1
          -1 -1 -1 -1 -1 -1
          -1 -1 -1 -1 -1 -1
          -1 -1 -1 -1 -1 -1
          -1 -1 -1 -1 -1 -1
          -1 -1 -1 -1 -1 -1
          -1 -1 -1 -1 -1 -1
          -1 -1 -1 -1 -1 -1
          -1 -1 -1 -1 -1 -1
          -1 -1 -1 -1 -1 -1
          -1 -1 -1 -1 -1 -1
          -1 -1 -1 -1 -1 -1
          -1 -1 -1 -1 -1 -1
          -1 -1 -1 -1 -1 -1
          -1 -1 -1 -1 -1 -1
          -1 -1 -1 -1 -1 -1
          -1 -1 -1 -1 -1 -1
          -1 -1 -1 -1 -1 -1
          -1 -1 -1 -1 -1 -1
          -1 -1 -1 -1 -1 -1
          -1 -1 -1 -1 -1 -1
          -1 -1 -1 -1 -1 -1
          -1 -1 -1 -1 -1 -1
          -1 -1 -1 -1 -1 -1
          -1 -1 -1 -1 -1 -1
          -1 -1 -1 -1 -1 -1
          -1 -1 -1 -1 -1 -1
          -1 -1 -1 -1 -1 -1
          -1 -1 -1 -1 -1 -1
          -1 -1 -1 -1 -1 -1
          -1 -1 -1 -1 -1 -1
          -1 -1 -1 -1 -1 -1
          -1 -1 -1 -1 -1 -1
          -1 -1 -1 -1 -1 -1
          -1 -1 -1 -1 -1 -1
          -1 -1 -1 -1 -1 -1
          -1 -1 -1 -1 -1 -1
          -1 -1 -1 -1 -1 -1
          -1 -1 -1 -1 -1 -1
          -1 -1 -1 -1 -1 -1
          -1 -1 -1 -1 -1 -1
          -1 -1 -1 -1 -1 -1
          -1 -1 -1 -1 -1 -1
          -1 -1 -1 -1 -1 -1
          -1 -1 -1 -1 -1 -1
          -1 -1 -1 -1 -1 -1
          -1 -1 -1 -1 -1 -1
          -1 -1 -1 -1 -1 -1
          -1 -1 -1 -1 -1 -1
          -1 -1 -1 -1 -1 -1
          -1 -1 -1 -1 -1 -1
          -1 -1 -1 -1 -1 -1
          -1 -1 -1 -1 -1 -1
          -1 -1 -1 -1 -1 -1
          -1 -1 -1 -1 -1 -1
          -1 -1 -1 -1 -1 -1
          -1 -1 -1 -1 -1 -1
          -1 -1 -1 -1 -1 -1
          -1 -1 -1 -1 -1 -1
          -1 -1 -1 -1 -1 -1
          -1 -1 -1 -1 -1 -1
          -1 -1 -1 -1 -1 -1
          -1 -1 -1 -1 -1 -1
          -1 -1 -1 -1 -1 -1
          -1 -1 -1 -1 -1 -1
          -1 -1 -1 -1 -1 -1
          -1 -1 -1 -1 -1 -1
          -1 -1 -1 -1 -1 -1
          -1 -1 -1 -1 -1 -1
          -1 -1 -1 -1 -1 -1
          -1 -1 -1 -1 -1 -1
          -1 -1 -1 -1 -1 -1
          -1 -1 -1 -1 -1 -1
          -1 -1 -1 -1 -1 -1
          -1 -1 -1 -1 -1 -1
          -1 -1 -1 -1 -1 -1
          -1 -1 -1 -1 -1 -1
          -1 -1 -1 -1 -1 -1
          -1 -1 -1 -1 -1 -1
          -1 -1 -1 -1 -1 -1
          -1 -1 -1 -1 -1 -1
          -1 -1 -1 -1 -1 -1
          -1 -1 -1 -1 -1 -1
          -1 -1 -1 -1 -1 -1
          -1 -1 -1 -1 -1 -1
          -1 -1 -1 -1 -1 -1
          -1 -1 -1 -1 -1 -1
          -1 -1 -1 -1 -1 -1
          -1 -1 -1 -1 -1 -1
          -1 -1 -1 -1 -1 -1
          -1 -1 -1 -1 -1 -1
          -1 -1 -1 -1 -1 -1
          -1 -1 -1 -1 -1 -1
          -1 -1 -1 -1 -1 -1
          -1 -1 -1 -1 -1 -1
          -1 -1 -1 -1 -1 -1
          -1 -1 -1 -1 -1 -1
          -1 -1 -1 -1 -1 -1
          -1 -1 -1 -1 -1 -1
          -1 -1 -1 -1 -1 -1
          -1 -1 -1 -1 -1 -1
          -1 -1 -1 -1 -1 -1
          -1 -1 -1 -1 -1 -1
          -1 -1 -1 -1 -1 -1
          -1 -1 -1 -1 -1 -1
          -1 -1 -1 -1 -1 -1
          -1 -1 -1 -1 -1 -1
          -1 -1 -1 -1 -1 -1
          -1 -1 -1 -1 -1 -1
          -1 -1 -1 -1 -1 -1
          -1 -1 -1 -1 -1 -1
          -1 -1 -1 -1 -1 -1
          -1 -1 -1 -1 -1 -1
          -1 -1 -1 -1 -1 -1
          -1 -1 -1 -1 -1 -1
          -1 -1 -1 -1 -1 -1
          -1 -1 -1 -1 -1 -1
          -1 -1 -1 -1 -1 -1
          -1 -1 -1 -1 -1 -1
          -1 -1 -1 -1 -1 -1
          -1 -1 -1 -1 -1 -1
          -1 -1 -1 -1 -1 -1
          -1 -1 -1 -1 -1 -1
          -1 -1 -1 -1 -1 -1
          -1 -1 -1 -1 -1 -1
          -1 -1 -1 -1 -1 -1
          -1 -1 -1 -1 -1 -1
          -1 -1 -1 -1 -1 -1
          -1 -1 -1 -1 -1 -1
          -1 -1 -1 -1 -1 -1
          -1 -1 -1 -1 -1 -1
          -1 -1 -1 -1 -1 -1
          -1 -1 -1 -1 -1 -1
          -1 -1 -1 -1 -1 -1
          -1 -1 -1 -1 -1 -1
          -1 -1 -1 -1 -1 -1
          -1 -1 -1 -1 -1 -1
          -1 -1 -1 -1 -1 -1
          -1 -1 -1 -1 -1 -1
          -1 -1 -1 -1 -1 -1
          -1 -1 -1 -1 -1 -1
          -1 -1 -1 -1 -1 -1
          -1 -1 -1 -1 -1 -1
          -1 -1 -1 -1 -1 -1
          -1 -1 -1 -1 -1 -1
          -1 -1 -1 -1 -1 -1
          -1 -1 -1 -1 -1 -1
          -1 -1 -1 -1 -1 -1
          -1 -1 -1 -1 -1 -1
          -1 -1 -1 -1 -1 -1
          -1 -1 -1 -1 -1 -1
          -1 -1 -1 -1 -1 -1
          -1 -1 -1 -1 -1 -1
          -1 -1 -1 -1 -1 -1
          -1 -1 -1 -1 -1 -1
          -1 -1 -1 -1 -1 -1
          -1 -1 -1 -1 -1 -1
          -1 -1 -1 -1 -1 -1
          -1 -1 -1 -1 -1 -1
          -1 -1 -1 -1 -1 -1
          -1 -1 -1 -1 -1 -1
          -1 -1 -1 -1 -1 -1
          -1 -1 -1 -1 -1 -1
          -1 -1 -1 -1 -1 -1
          -1 -1 -1 -1 -1 -1
          -1 -1 -1 -1 -1 -1
          -1 -1 -1 -1 -1 -1
          -1 -1 -1 -1 -1 -1
          -1 -1 -1 -1 -1 -1
          -1 -1 -1 -1 -1 -1
          -1 -1 -1 -1 -1 -1
          -1 -1 -1 -1 -1 -1
          -1 -1 -1 -1 -1 -1
          -1 -1 -1 -1 -1 -1
          -1 -1 -1 -1 -1 -1
          -1 -1 -1 -1 -1 -1
          -1 -1 -1 -1 -1 -1
          -1 -1 -1 -1 -1 -1
          -1 -1 -1 -1 -1 -1
          -1 -1 -1 -1 -1 -1
          -1 -1 -1 -1 -1 -1
          -1 -1 -1 -1 -1 -1
          -1 -1 -1 -1 -1 -1
          -1 -1 -1 -1 -1 -1
          -1 -1 -1 -1 -1 -1
          -1 -1 -1 -1 -1 -1
          -1 -1 -1 -1 -1 -1
          -1 -1 -1 -1 -1 -1
          -1 -1 -1 -1 -1 -1
          -1 -1 -1 -1 -1 -1
          -1 -1 -1 -1 -1 -1
          -1 -1 -1 -1 -1 -1
          -1 -1 -1 -1 -1 -1
          -1 -1 -1 -1 -1 -1
          -1 -1 -1 -1 -1 -1
          -1 -1 -1 -1 -1 -1
          -1 -1 -1 -1 -1 -1
          -1 -1 -1 -1 -1 -1
          -1 -1 -1 -1 -1 -1
          -1 -1 -1 -1 -1 -1
          -1 -1 -1 -1 -1 -1
          -1 -1 -1 -1 -1 -1
          -1 -1 -1 -1 -1 -1
          -1 -1 -1 -1 -1 -1
          -1 -1 -1 -1 -1 -1
          -1 -1 -1 -1 -1 -1
          -1 -1 -1 -1 -1 -1
          -1 -1 -1 -1 -1 -1
          -1 -1 -1 -1 -1 -1
          -1 -1 -1 -1 -1 -1
          -1 -1 -1 -1 -1 -1
          -1 -1 -1 -1 -1 -1