<?xml version="1.0"?>
<VTKFile type="PolyData" version="0.1" byte_order="LittleEndian" compressor="vtkZLibDataCompressor">
  <PolyData>
    <FieldData>
      <DataArray type="Float64" Name="AortaIntensityMean" NumberOfTuples="1" format="ascii" RangeMin="399.31972789" RangeMax="399.31972789">
        399.31972789
      </DataArray>
      <DataArray type="Float64" Name="AortaIntensitySigma" NumberOfTuples="1" format="ascii" RangeMin="20.901619312" RangeMax="20.901619312">
        20.901619312
      </DataArray>
    </FieldData>
    <Piece NumberOfPoints="527" NumberOfVerts="0" NumberOfLines="9" NumberOfStrips="0" NumberOfPolys="0">
      <PointData>
        <DataArray type="Int32" Name="PointType" format="ascii" RangeMin="-2" RangeMax="5">
          0 -1 -1 -1 -1 -1
          -1 -1 -1 -1 -1 -1
          -1 -1 -1 -1 -1 -1
          -1 -1 -1 -1 -1 -1
          -1 -1 -1 -1 -1 -1
          -2 -1 -1 -1 -1 -1
          -1 -1 -1 -1 -1 -1
          -1 -1 -1 -1 -1 -1
          -2 -1 -1 -1 -1 -1
          -1 -1 -1 -1 -1 -1
          -1 -1 -1 -1 -1 -1
          -1 -1 -1 -1 -1 -1
          -1 -1 -2 -1 -1 -1
          -1 -1 -1 -1 -1 -1
          -1 -1 -1 -1 -1 -1
          -1 -1 -1 -1 -1 -1
          -1 -1 -1 -1 -1 -1
          -1 -1 -1 -1 -1 -1
          -1 -1 -1 -1 -1 -1
          -1 -1 -1 -1 -1 -1
          -1 -1 -1 -1 -1 -1
          -1 -1 -1 -1 -1 -1
          -1 -1 -1 -1 -1 -1
          -1 -1 -1 -1 -1 -1
          -1 -1 -1 -1 -1 -1
          -1 -1 -1 -1 -1 -1
          -1 -1 -1 -1 -1 -1
          -1 -1 -1 -1 -1 -1
          -1 -1 -1 -1 -1 -1
          -1 -1 -1 -1 -1 -1
          -1 -1 -1 -1 -1 -1
          -1 -1 -1 -1 -2 -1
          -1 -1 -1 -1 -1 -1
          -1 -1 -1 -1 -1 -1
          -1 -1 -1 -1 -1 -1
          -1 -1 -1 -1 -1 -1
          -1 -1 -1 -1 -1 -1
          -1 -1 -1 -1 -1 -1
          -1 -1 -1 -1 -1 -1
          -1 -1 -1 -1 -1 -1
          -1 -1 -1 -1 -1 -1
          -1 -1 -1 -1 -1 -1
          -1 -1 -1 -1 -1 -1
          1 -1 -1 -1 -1 -1
          -1 -1 -1 -1 -1 -1
          -1 -1 -1 -1 -1 -1
          -1 -1 -1 -1 -1 -1
          -1 -1 -1 -1 -1 -1
          -1 -1 -1 -1 -1 -1
          -1 -1 -1 -1 -1 -1
          -1 -1 -1 -1 -1 -1
          -1 -1 -1 -1 -1 -1
          -1 -1 -1 -1 2 -1
          -1 -1 -1 -1 -1 -1
          -1 -1 -1 -1 -1 -1
          -1 -1 -1 -1 -1 -1
          -1 -1 -1 -1 -1 -1
          -1 -1 -1 -1 -1 -1
          -1 -1 -1 -1 -1 -1
          -1 -1 -1 -1 -1 -1
          -1 -1 -1 -1 -1 -1
          -1 -1 -1 -1 -1 -1
          -1 -1 -1 -1 -1 -1
          -1 -1 -1 -1 -1 -1
          -1 -1 -1 -1 -1 -1
          -1 -1 -1 -1 -1 -1
          -1 -1 -1 -1 -1 -1
          -1 -1 -1 -1 -1 -1
          -1 -1 -1 -1 -1 -1
          -1 -1 -1 -1 -1 -1
          -1 -1 -1 -1 -1 -1
          -1 -1 -1 -1 -1 -1
          3 -1 -1 -1 -1 -1
          -1 -1 -1 -1 -1 -1
          -1 -1 -1 -1 -1 -1
          -1 -1 -1 -1 -1 -1
          -1 -1 -1 -1 -1 -1
          -1 -1 -1 -1 -1 -1
          -1 -1 -1 -1 -1 -1
          -1 -1 -1 -1 -1 -1
          -1 -1 -1 -1 -1 -1
          -1 -1 -1 -1 -1 -1
          -1 -1 -1 -1 -1 -1
          -1 -1 -1 -1 -1 -1
          -1 -1 -1 -1 -1 -1
          -1 4 -1 -1 -1 -1
          -1 -1 -1 -1 -1 -1
          -1 -1 -1 -1 5
        </DataArray>
        <DataArray type="Int32" Name="PixelCount" format="ascii" RangeMin="12" RangeMax="288">
          220 220 220 220 220 202
          182 171 164 170 181 180
          201 228 239 264 277 277
          288 286 287 280 261 243
          219 183 148 136 126 138
          150 148 142 136 120 135
          142 159 172 175 193 217
          219 225 237 218 188 182
          165 150 133 117 105 94
          82 74 64 48 40 18
          21 17 17 17 17 17
          17 17 17 17 17 12
          12 13 24 26 31 33
          36 38 39 49 55 47
          63 73 69 74 77 69
          77 81 70 74 74 63
          57 47 52 53 66 69
          73 72 69 68 68 67
          72 87 89 89 95 81
          73 78 77 80 86 76
          83 90 95 81 78 71
          68 77 60 67 68 61
          47 42 39 38 38 57
          67 61 71 83 85 80
          92 80 80 78 75 71
          70 64 59 62 68 69
          67 64 59 69 70 84
          83 78 82 83 78 99
          104 96 78 57 49 42
          47 56 51 48 58 45
          57 80 83 100 100 109
          114 113 108 96 84 86
          83 68 66 63 53 54
          49 55 50 46 49 45
          54 45 58 46 45 41
          43 41 43 51 54 57
          58 52 48 55 48 64
          44 56 63 63 60 63
          60 64 58 59 57 65
          55 52 61 52 51 60
          68 68 59 52 54 60
          59 56 52 52 55 55
          57 57 50 40 45 54
          55 99 96 95 89 85
          80 78 81 85 94 93
          87 78 82 76 78 77
          75 71 72 77 73 69
          71 73 78 75 61 65
          62 61 63 68 73 77
          69 68 59 71 61 61
          68 65 72 72 64 67
          70 63 61 65 61 56
          57 53 53 47 41 24
          27 29 37 40 42 45
          51 57 58 58 59 65
          70 68 71 61 57 60
          67 62 60 70 65 61
          54 55 51 59 48 52
          47 48 55 58 45 55
          50 45 53 48 43 45
          59 61 50 56 54 67
          59 64 63 60 63 56
          67 62 60 54 64 65
          69 70 59 64 59 61
          63 63 60 58 64 61
          69 61 65 65 71 76
          64 57 66 70 82 73
          72 70 76 76 71 82
          88 86 89 89 85 78
          73 83 76 81 75 75
          70 67 71 69 68 70
          71 63 64 57 59 61
          61 151 129 76 54 52
          47 52 43 43 52 54
          46 46 42 55 50 44
          48 58 51 62 58 63
          57 52 58 56 64 64
          62 56 56 57 58 68
          59 60 69 65 70 68
          84 82 79 73 75 65
          67 72 73 76 69 70
          72 77 65 64 75 70
          72 74 61 75 66 70
          70 71 63 62 64 67
          59 59 62 59 61 55
          58 43 111 103 90 80
          73 67 66 63 56 61
          63 63 74 78 74
        </DataArray>
        <DataArray type="Float64" Name="Radius" format="ascii" RangeMin="0.39088201535" RangeMax="1.9149229745">
          1.6736567993 1.6736567993 1.6736567993 1.6736567993 1.6736567993 1.6037281431
          1.5222667442 1.4755472498 1.4450304203 1.4712264579 1.5180789323 1.5138795358
          1.5997535939 1.7038152037 1.7444318853 1.833399165 1.8779972428 1.8779972428
          1.9149229745 1.9082623526 1.9115955645 1.8881395159 1.8229523611 1.7589690691
          1.6698487016 1.5264430668 1.372732524 1.3159049481 1.2666024926 1.3255454063
          1.3819766185 1.372732524 1.3446189822 1.3159049481 1.2360774649 1.3110581362
          1.3446189822 1.4228320127 1.4798554261 1.4927053526 1.5675944611 1.6622063333
          1.6698487016 1.6925687759 1.7371176733 1.6660318995 1.5471555886 1.5222667442
          1.4494293054 1.3819766185 1.3013103569 1.2205287017 1.1562445943 1.0940042083
          1.0217908092 0.97066847646 0.90270334713 0.78176403069 0.7136496571 0.47873074362
          0.51708830229 0.4652426561 0.4652426561 0.4652426561 0.4652426561 0.4652426561
          0.4652426561 0.4652426561 0.4652426561 0.4652426561 0.4652426561 0.39088201535
          0.39088201535 0.40684290058 0.55279064739 0.57536274775 0.62825494079 0.6482044911
          0.67702751035 0.6955796442 0.7046725745 0.78986542874 0.83682839966 0.77357779432
          0.89562321156 0.96408759735 0.93730214555 0.97066847646 0.99014871543 0.93730214555
          0.99014871543 1.0155412655 0.94406975795 0.97066847646 0.97066847646 0.89562321156
          0.85190760187 0.77357779432 0.81368580115 0.82147244556 0.91669958251 0.93730214555
          0.96408759735 0.95746148723 0.93730214555 0.9304853122 0.9304853122 0.92361816807
          0.95746148723 1.0524820364 1.0645107931 1.0645107931 1.0998079849 1.0155412655
          0.96408759735 0.99655751188 0.99014871543 1.0092530238 1.046415807 0.98369816653
          1.0280023607 1.0704744856 1.0998079849 1.0155412655 0.99655751188 0.95078920046
          0.9304853122 0.99014871543 0.8740387575 0.92361816807 0.9304853122 0.88129231554
          0.77357779432 0.73127329004 0.7046725745 0.6955796442 0.6955796442 0.85190760187
          0.92361816807 0.88129231554 0.95078920046 1.0280023607 1.0403142051 1.0092530238
          1.0823032921 1.0092530238 1.0092530238 0.99655751188 0.97720503837 0.95078920046
          0.94406975795 0.90270334713 0.86672449705 0.8884866579 0.9304853122 0.93730214555
          0.92361816807 0.90270334713 0.86672449705 0.93730214555 0.94406975795 1.0341766046
          1.0280023607 0.99655751188 1.0217908092 1.0280023607 0.99655751188 1.1227231123
          1.1507254955 1.1055812948 0.99655751188 0.85190760187 0.78986542874 0.73127329004
          0.77357779432 0.84440166171 0.80582391821 0.78176403069 0.8593479842 0.75693976789
          0.85190760187 1.0092530238 1.0280023607 1.1283791839 1.1283791839 1.1780624538
          1.2047792845 1.1994835257 1.172646046 1.1055812948 1.0341766046 1.046415807
          1.0280023607 0.9304853122 0.91669958251 0.89562321156 0.82147244556 0.82918597109
          0.78986542874 0.83682839966 0.79788457269 0.76530399714 0.78986542874 0.75693976789
          0.82918597109 0.75693976789 0.8593479842 0.76530399714 0.75693976789 0.72251521015
          0.73992771306 0.72251521015 0.73992771306 0.80582391821 0.82918597109 0.85190760187
          0.8593479842 0.81368580115 0.78176403069 0.83682839966 0.78176403069 0.90270334713
          0.74848207486 0.84440166171 0.89562321156 0.89562321156 0.8740387575 0.89562321156
          0.8740387575 0.90270334713 0.8593479842 0.86672449705 0.85190760187 0.90972838185
          0.83682839966 0.81368580115 0.88129231554 0.81368580115 0.80582391821 0.8740387575
          0.9304853122 0.9304853122 0.86672449705 0.81368580115 0.82918597109 0.8740387575
          0.86672449705 0.84440166171 0.81368580115 0.81368580115 0.83682839966 0.83682839966
          0.85190760187 0.85190760187 0.79788457269 0.7136496571 0.75693976789 0.82918597109
          0.83682839966 1.1227231123 1.1055812948 1.0998079849 1.0645107931 1.0403142051
          1.0092530238 0.99655751188 1.0155412655 1.0403142051 1.0940042083 1.0881694776
          1.0524820364 0.99655751188 1.0217908092 0.98369816653 0.99655751188 0.99014871543
          0.97720503837 0.95078920046 0.95746148723 0.99014871543 0.96408759735 0.93730214555
          0.95078920046 0.96408759735 0.99655751188 0.97720503837 0.88129231554 0.90972838185
          0.8884866579 0.88129231554 0.89562321156 0.9304853122 0.96408759735 0.99014871543
          0.93730214555 0.9304853122 0.86672449705 0.95078920046 0.88129231554 0.88129231554
          0.9304853122 0.90972838185 0.95746148723 0.95746148723 0.90270334713 0.92361816807
          0.94406975795 0.89562321156 0.88129231554 0.90972838185 0.88129231554 0.84440166171
          0.85190760187 0.82147244556 0.82147244556 0.77357779432 0.72251521015 0.55279064739
          0.58632302302 0.60765078703 0.68636626199 0.7136496571 0.73127329004 0.75693976789
          0.80582391821 0.85190760187 0.8593479842 0.8593479842 0.86672449705 0.90972838185
          0.94406975795 0.9304853122 0.95078920046 0.88129231554 0.85190760187 0.8740387575
          0.92361816807 0.8884866579 0.8740387575 0.94406975795 0.90972838185 0.88129231554
          0.82918597109 0.83682839966 0.80582391821 0.86672449705 0.78176403069 0.81368580115
          0.77357779432 0.78176403069 0.83682839966 0.8593479842 0.75693976789 0.83682839966
          0.79788457269 0.75693976789 0.82147244556 0.78176403069 0.73992771306 0.75693976789
          0.86672449705 0.88129231554 0.79788457269 0.84440166171 0.82918597109 0.92361816807
          0.86672449705 0.90270334713 0.89562321156 0.8740387575 0.89562321156 0.84440166171
          0.92361816807 0.8884866579 0.8740387575 0.82918597109 0.90270334713 0.90972838185
          0.93730214555 0.94406975795 0.86672449705 0.90270334713 0.86672449705 0.88129231554
          0.89562321156 0.89562321156 0.8740387575 0.8593479842 0.90270334713 0.88129231554
          0.93730214555 0.88129231554 0.90972838185 0.90972838185 0.95078920046 0.98369816653
          0.90270334713 0.85190760187 0.91669958251 0.94406975795 1.0217908092 0.96408759735
          0.95746148723 0.94406975795 0.98369816653 0.98369816653 0.95078920046 1.0217908092
          1.0585135015 1.046415807 1.0645107931 1.0645107931 1.0403142051 0.99655751188
          0.96408759735 1.0280023607 0.98369816653 1.0155412655 0.97720503837 0.97720503837
          0.94406975795 0.92361816807 0.95078920046 0.93730214555 0.9304853122 0.94406975795
          0.95078920046 0.89562321156 0.90270334713 0.85190760187 0.86672449705 0.88129231554
          0.88129231554 1.386575555 1.2815923929 0.98369816653 0.82918597109 0.81368580115
          0.77357779432 0.81368580115 0.73992771306 0.73992771306 0.81368580115 0.82918597109
          0.76530399714 0.76530399714 0.73127329004 0.83682839966 0.79788457269 0.74848207486
          0.78176403069 0.8593479842 0.80582391821 0.8884866579 0.8593479842 0.89562321156
          0.85190760187 0.81368580115 0.8593479842 0.84440166171 0.90270334713 0.90270334713
          0.8884866579 0.84440166171 0.84440166171 0.85190760187 0.8593479842 0.9304853122
          0.86672449705 0.8740387575 0.93730214555 0.90972838185 0.94406975795 0.9304853122
          1.0341766046 1.0217908092 1.0029253563 0.96408759735 0.97720503837 0.90972838185
          0.92361816807 0.95746148723 0.96408759735 0.98369816653 0.93730214555 0.94406975795
          0.95746148723 0.99014871543 0.90972838185 0.90270334713 0.97720503837 0.94406975795
          0.95746148723 0.97066847646 0.88129231554 0.97720503837 0.91669958251 0.94406975795
          0.94406975795 0.95078920046 0.89562321156 0.8884866579 0.90270334713 0.92361816807
          0.86672449705 0.86672449705 0.8884866579 0.86672449705 0.88129231554 0.83682839966
          0.8593479842 0.73992771306 1.1888212384 1.1451797982 1.0704744856 1.0092530238
          0.96408759735 0.92361816807 0.91669958251 0.89562321156 0.84440166171 0.88129231554
          0.89562321156 0.89562321156 0.97066847646 0.99655751188 0.97066847646
        </DataArray>
        <DataArray type="Float64" Name="MajorRadius" format="ascii" RangeMin="0.44221664134" RangeMax="2.040406639">
          1.7645900989 1.7645900989 1.7645900989 1.7645900989 1.7645900989 1.7182981747
          1.5667765851 1.561892342 1.5015209422 1.5271579016 1.6348787551 1.5684608693
          1.6901211037 1.8275841032 1.8784109396 1.9687588031 2.040406639 1.9534796052
          1.9597151095 1.9336775114 1.9862999258 1.9470131211 1.9248441983 1.8335010802
          1.7246099729 1.6830570472 1.5241005171 1.4878049118 1.4350365853 1.4784668189
          1.5041423068 1.4969567522 1.4529329516 1.4694740514 1.3878489701 1.3863719193
          1.3847168175 1.4980461344 1.6225507978 1.7401624939 1.7313007613 1.8401853836
          1.7762296941 1.7900699882 1.8420158661 1.7235367078 1.6102983715 1.5893433808
          1.4770792228 1.40823662 1.3377779206 1.2639143178 1.2027809322 1.1122791456
          1.0712420623 1.0505989231 0.98827153725 0.86872369153 0.83934289276 0.63503318779
          0.65539971375 0.68366514271 0.7090566264 0.68366514271 0.7090566264 0.68366514271
          0.6486977197 0.66663814584 0.6999924764 0.7090566264 0.68366514271 0.44221664134
          0.52795606446 0.45853725163 0.65085197465 0.70872994525 0.74160357627 0.76645561407
          0.82046862871 0.85877047865 0.86213656756 0.91546031409 1.0481632389 1.1039323971
          1.1385357073 1.1049955533 1.1550941639 1.1779756722 1.074621598 1.103488271
          1.0755270165 1.1113506483 1.2075028599 1.2669107626 1.0918398066 1.0875588579
          1.0212576065 0.93362122973 1.0838352365 1.1026147053 1.0697620551 1.087417428
          1.1252355743 1.0778827828 1.0702308814 1.0654233138 1.0654233138 1.0426626361
          1.1448115519 1.1851432023 1.1100277112 1.0999242946 1.2062941731 1.0986495182
          1.0604070821 1.0928806468 1.1964614093 1.12500345 1.1391291788 1.0918515368
          1.0886525316 1.1071626828 1.1643846685 1.1575385266 1.1424198321 1.0531431355
          0.97571097874 1.1601975614 0.95195285308 1.1233942199 1.1969842135 1.0002714306
          0.93936988323 0.8753395211 0.80327712302 0.80883904709 0.81459590218 0.97029582516
          1.0410801089 0.95224420059 1.0666524092 1.1225404907 1.0920994921 1.0746273201
          1.1847251115 1.1459833316 1.0967600986 1.1249939132 1.1569976025 1.0989973232
          1.0701274078 0.94803029519 1.0083005102 0.93252870042 1.0182452354 1.0034689099
          1.0019472271 0.94586497763 1.0382473147 1.0376603281 1.0867579622 1.0882992907
          1.0749830406 1.1162574934 1.171345156 1.1429847888 1.1289869477 1.3270846565
          1.2654391477 1.2373912996 1.1410686663 0.91592580253 0.90103980453 0.86434441901
          0.87290126194 0.90137463959 0.8937477245 0.88380490666 0.98654681722 0.86512099602
          0.93129321532 1.0610220114 1.0784208458 1.2205242339 1.219680995 1.2269752685
          1.2358202165 1.2206389609 1.2272869293 1.1252169777 1.0744206589 1.1577241116
          1.0769353073 1.0045006902 0.99207812834 0.9390217921 0.85495492302 0.88154069307
          0.87666179056 0.86024276108 0.85218488056 0.81271401663 0.915707125 0.90988074705
          0.89091273682 0.86046506257 0.95344487657 0.84854813887 0.83672515209 0.87424956671
          0.80790120375 0.79105526196 0.90696431558 0.9708775665 0.92008601606 0.96503364094
          1.0073093564 0.86424380637 0.92163468781 0.94549361684 0.95259610642 1.0863980455
          0.89584666633 0.97128287809 1.0714840095 1.0105080755 0.94260894273 0.99003449962
          0.928174891 1.0143383177 0.9185769218 1.0022857815 0.97431394122 0.99390622666
          0.91714545663 0.93640529121 1.0576914945 0.92299996798 0.88278552417 0.94182721588
          1.0447798885 1.0170666846 0.94352570986 0.94063083143 1.0215771827 0.95476151935
          0.92541581579 0.86719504695 0.88991967574 0.89813691524 0.8924867763 0.8638618598
          0.89974662214 0.90846206111 0.91382762363 0.84381800955 0.86400672293 0.93040057615
          0.89012433425 1.2168755713 1.2049040974 1.2353882974 1.1695684607 1.1254418541
          1.1435629061 1.1607863599 1.1805183587 1.1646300489 1.3562761509 1.2337571328
          1.2322100823 1.1260265518 1.1986085117 1.1596484357 1.1115750478 1.0828401727
          1.0693117301 1.0652463118 1.0777197998 1.0696959655 1.102128999 1.0161769065
          1.0925871058 1.0574537435 1.0929657145 1.0315563356 0.96778241646 1.0215638313
          0.9891739039 0.95065986143 0.97803498772 1.0458069957 1.0628569761 1.0989109203
          0.99408256105 1.0099199446 0.94813271982 1.0119760664 0.98668605367 0.99437018923
          0.96581307897 1.0286959801 1.086486928 1.08513519 0.97436191103 1.0212412986
          1.0629964033 0.99031812236 0.93268205125 1.0152207526 0.93883305995 1.0027707249
          1.0020572812 0.93035603956 0.98964911982 0.89881354718 0.78892933114 0.6075315566
          0.65244928379 0.63842464445 0.71934152721 0.77124272542 0.75698753531 0.79371281853
          0.84566050836 0.9070131437 0.93796569315 0.93796569315 0.96468259342 1.0628126303
          0.9965161472 1.0507042088 0.99934102594 0.99031621501 0.91368991306 0.93015634015
          1.0343435442 0.96325780397 0.91018592283 0.99549361759 0.98365289247 0.93775512185
          0.90389148152 0.91084605621 0.91962682187 0.92222558442 0.88872357739 0.87717725154
          0.84871932341 0.91131831573 0.9310783525 0.98063184292 0.84838153196 0.93574382269
          0.86899691923 0.85335618337 0.91091214584 0.9108657019 0.83011580751 0.84575015375
          0.91680575783 0.98205453429 0.87638503427 0.95281096925 0.92420741505 0.97494756244
          0.95467463962 0.96784869683 0.94835864527 0.99113713788 0.96936723246 1.0256481323
          1.0199817809 0.9680241729 0.91036693022 0.89981662184 0.97718440558 1.0378956949
          1.0203118476 1.0248248253 1.0051604421 0.97804776695 0.91012488768 0.95072061048
          0.92547713705 0.97866660623 0.9046813146 0.90463115133 0.97925721674 0.94937545284
          1.0831458253 0.97013808742 0.98183757338 0.97023612514 1.0490824856 1.0911547823
          0.96585904607 0.96453286655 0.97395717165 1.0073237569 1.1016787693 1.0294578706
          1.0856986208 1.0060510785 1.0820202035 1.0914587184 1.0429023898 1.1210205245
          1.123237722 1.0943839236 1.1617738897 1.1260873009 1.1217015434 1.0805745286
          1.0673096816 1.0889570398 1.0474701084 1.0688923995 1.026724926 1.1154874968
          1.0470072902 1.0160152587 1.0518097081 1.0510839619 1.0397718585 1.0976246044
          1.059341065 0.94937535747 0.94712735634 0.98599654713 0.94080316038 0.95001136288
          0.93450166187 1.4676305036 1.3385743341 1.0447530902 0.98590699711 0.9586953306
          0.86079150529 0.96690150748 0.8780359399 0.78586598614 0.9314317842 0.93557902777
          0.89353505512 0.83997842133 0.84212275806 0.89588071251 0.84292031591 0.8795165193
          0.88246337298 0.91921721875 0.95416738025 0.94344998812 0.99452916674 0.9430201671
          0.91593944007 0.92444030232 0.99800235328 0.92928992702 0.99247962523 0.97540313267
          0.96510001667 0.91532041006 0.88456727392 0.91237870622 0.98382751024 1.0285004769
          0.91821948466 0.92311517184 0.99287606765 0.93941375225 1.0907449885 0.9959433704
          1.0953876659 1.1005803272 1.0822490853 1.079002015 1.0435309566 1.0275837098
          1.0453869022 1.0516665615 1.133812349 1.0670762221 1.0210739288 1.0792029542
          1.0603412786 1.0939726993 1.0120924147 0.96171361449 1.0927811785 1.0540712514
          1.0470347561 1.0420624888 0.9587120199 1.0683473746 1.0050356061 1.039407841
          1.0505082287 1.0507023014 0.98060094387 0.96686727057 1.0295251046 1.0408437884
          0.90167180451 0.94345742678 0.94717360954 0.9330529352 0.93753720727 0.92068969191
          0.92690707634 0.78348523354 1.2943834498 1.2515445896 1.1624509985 1.1085902379
          1.0639867941 0.94866334421 0.98835155052 0.95827342508 0.97875930337 0.98403674638
          0.93668090309 0.96094266416 1.0763833206 1.0372623598 1.1362314394
        </DataArray>
        <DataArray type="Float64" Name="MinorRadius" format="ascii" RangeMin="0.34015713245" RangeMax="1.9144279765">
          1.6253170256 1.6253170256 1.6253170256 1.6253170256 1.6253170256 1.5318595161
          1.5094902264 1.4438837267 1.4266151641 1.4557197788 1.4444246507 1.4962520822
          1.5413716546 1.6150192501 1.6531307467 1.738443782 1.7627985263 1.8363395965
          1.898913221 1.9144279765 1.8612072268 1.8672905247 1.7574421191 1.7122581737
          1.6439682252 1.4166324827 1.2769293975 1.183470839 1.1297974755 1.2152414503
          1.2988797381 1.2858994676 1.2848687363 1.2143937292 1.1645446951 1.277764244
          1.3488375865 1.3869487015 1.381254026 1.3143441396 1.4520294406 1.5516383402
          1.6132341625 1.6263284926 1.6869499458 1.6323578124 1.5077671276 1.4836858017
          1.4442807413 1.3750857558 1.2846618844 1.2012079418 1.1289828469 1.1040502713
          1.0030231625 0.92115069808 0.85774604168 0.72660719047 0.65281706829 0.45886817662
          0.45057025627 0.40749312054 0.42486987747 0.40749312054 0.42486987747 0.40749312054
          0.44275379841 0.42578325906 0.39591212863 0.42486987747 0.40749312054 0.40000000596
          0.34015713245 0.41973038345 0.50826779169 0.49241758127 0.56138287427 0.57074566738
          0.5728780355 0.58748241346 0.59519892626 0.70317493533 0.70229421708 0.58028250605
          0.73847752718 0.87805940029 0.81653672481 0.8665210853 0.95144645201 0.85729943599
          0.94965583309 0.96768294823 0.77656456197 0.77573491299 0.92298880999 0.81297265311
          0.77672353948 0.7085825072 0.67640973145 0.64905639662 0.81320515891 0.86373750066
          0.88985511198 0.88693658243 0.84730683636 0.83935433685 0.83935433685 0.84449540443
          0.8360468989 0.96915380015 1.0500753559 1.0543887295 1.039367882 0.97189523238
          0.94996253475 0.95314828386 0.90415603078 0.95703135963 1.0182159576 0.94670192222
          1.0218394432 1.0702293555 1.0844949884 0.93584376776 0.92735053491 0.88971749678
          0.94538623311 0.88702403437 0.85523692452 0.8116938712 0.76143141927 0.8559146055
          0.68685194085 0.69728547182 0.65251675624 0.64144283297 0.64348255163 0.83569766336
          0.86884566648 0.87033273086 0.87227593768 1.0081981809 1.0367600595 0.9779662278
          1.0228543434 0.93721076455 0.96477147586 0.92464448399 0.86360179281 0.89846478847
          0.87722674723 0.89837905315 0.79554177516 0.8901891841 0.87638121957 0.9182954925
          0.89533425712 0.91349173953 0.75683175261 0.89680596734 0.87581988686 1.0504525341
          1.0556842008 0.92658425758 0.97582065129 0.95571109289 0.92540866323 1.0017907292
          1.1113078283 1.0461943782 0.92559510657 0.83370600989 0.7192481625 0.71233502496
          0.71369730106 0.81757270124 0.77572761738 0.71879531024 0.7760250684 0.70110341163
          0.80832072509 1.0060188443 1.0358656084 1.0861727876 1.0917971774 1.1758346733
          1.2059716404 1.2096466245 1.1369743517 1.1089901136 1.0371648943 0.97732144858
          1.007839504 0.88493625052 0.89540482902 0.88243218783 0.82521535196 0.81343642493
          0.74956937953 0.83027697847 0.79877883194 0.75133157896 0.71795593378 0.66634694139
          0.82745591443 0.69235325891 0.7996949315 0.7205972302 0.73357549807 0.65620986009
          0.74088526876 0.71036769018 0.6742856603 0.71644841308 0.80592709789 0.82772799772
          0.81569577479 0.81838218001 0.6854889495 0.78642264584 0.67756067332 0.80530453928
          0.67700835283 0.78656498174 0.81650878216 0.88923303022 0.87847062466 0.86375352239
          0.85764685955 0.86625729898 0.86551362374 0.81283427496 0.80707942258 0.88501559623
          0.81782017973 0.7779056665 0.80741368543 0.78095184536 0.78450347162 0.85913745253
          0.89825745967 0.9275818963 0.82811461729 0.74264751587 0.72705985199 0.87776700374
          0.83492385201 0.85538312279 0.80153676274 0.81241408605 0.82994281098 0.85914393752
          0.85483647667 0.85391379675 0.76827193451 0.64941349997 0.70011015982 0.78026462764
          0.84621363947 1.0497596897 1.0279401932 0.99411088517 0.98120757611 0.9835450319
          0.9248813767 0.88090516449 0.90603791633 0.95606910223 0.92347394412 1.0133887442
          0.9249320168 0.90943976804 0.89509116553 0.86583272317 0.92709027718 0.95649510855
          0.94064752073 0.88865014447 0.90688468377 0.96341678148 0.89654714013 0.91789800104
          0.87157851564 0.93332358797 0.97128154295 0.95744010445 0.86084901185 0.8438357479
          0.8471301205 0.87196427691 0.8862777842 0.85782338467 0.91188460755 0.93608676398
          0.95686198707 0.90146838578 0.82093440325 0.96057168485 0.85354424795 0.85791541424
          0.94456922031 0.86650582651 0.8758294236 0.87847033856 0.88990680113 0.89235974688
          0.86065188737 0.86994019851 0.88195258501 0.86697083811 0.87814847347 0.75788055596
          0.79715143438 0.78345795845 0.73006850377 0.72886901988 0.72135621192 0.52235036675
          0.53905363886 0.59323054244 0.67502380423 0.67123123215 0.71936875462 0.73763404992
          0.80886966003 0.83818093595 0.83123627948 0.83123627948 0.82432233131 0.80698586713
          0.92893058254 0.87569381111 0.95664273734 0.83410645774 0.83668576534 0.85570517861
          0.87876302121 0.91471263341 0.88441153891 0.94394847369 0.89496032141 0.87978841185
          0.8142696502 0.82213279042 0.7733099099 0.85666791285 0.7086006747 0.8182147148
          0.75256315399 0.71723743554 0.8145522239 0.80341759925 0.73494230412 0.8022956014
          0.80009433031 0.72241064194 0.80873404754 0.72085314871 0.73275200028 0.72500692494
          0.88767815959 0.85258809406 0.7895669578 0.771588337 0.78877397759 0.91668645317
          0.90435296453 0.870375074 0.90313207065 0.84330207174 0.86925574644 0.75648113424
          0.86712151866 0.88105365159 0.88072501541 0.80909663452 0.85851661054 0.84955693557
          0.93230954606 0.92184869233 0.79263464201 0.8780813348 0.85237542469 0.90874816341
          0.89049178497 0.89850503353 0.88906728162 0.86552964547 0.89328404804 0.89120017426
          0.85878001539 0.84287511174 0.88136330964 0.88312360172 0.90490876593 0.95244742859
          0.91815129695 0.79456802598 0.91988679349 0.92406283802 0.98748971503 0.96130820753
          0.87560874336 0.93780318704 0.93502112828 0.92489997335 0.92285310213 0.96281110291
          1.0245456848 1.0513591923 1.0171876105 1.038023678 1.0293296014 0.96197864059
          0.91211663652 1.0261201058 0.94948560222 1.0029262692 0.97176562804 0.89951926618
          0.93151265579 0.89711429025 0.90637170235 0.86707793574 0.86846209866 0.84157840075
          0.91194106507 0.89488431357 0.89935275464 0.7697572346 0.83825465498 0.84752417874
          0.86235467288 1.3342012604 1.2529858776 0.98675710241 0.7328494658 0.71769410249
          0.72526718267 0.70705996613 0.68805204463 0.72541419157 0.75324999024 0.77472091876
          0.70083728881 0.74896718188 0.6902885063 0.80743552457 0.80031501055 0.67845960674
          0.7401726833 0.85618344629 0.72933736934 0.88236438159 0.79720340963 0.88665534387
          0.82746554654 0.73794447091 0.77283192833 0.80405551201 0.89307805438 0.89731675531
          0.85918799727 0.84278346364 0.84565116235 0.83405124 0.81388722679 0.90807343882
          0.86303998326 0.87510796897 0.92626191566 0.90882741375 0.86912299498 0.9231483597
          1.0301965867 1.009812084 0.97285825272 0.89514066123 0.98344499146 0.83884536086
          0.85619822824 0.90597325721 0.88135701539 0.95830441949 0.89440604589 0.90275546465
          0.8942704334 0.94188176605 0.84160291018 0.89672595407 0.9296680589 0.91167956757
          0.89909879117 0.97716723944 0.85780621853 0.92814322901 0.88377105122 0.90557242789
          0.89852334408 0.92463122792 0.87144681322 0.84666997264 0.82999583527 0.85473834358